# vtk DataFile Version 2.0
vtk output
ASCII
DATASET UNSTRUCTURED_GRID
POINTS 100 double
12.2465 42.4115 2.9994 
-59.6133 121.078 -164.595 
15.7527 -29.7618 -246.826 
-34.1915 -167.736 -216.497 
88.7242 182.775 194.422 
-83.1662 -88.322 -211.984 
70.892 23.9234 85.0272 
89.5895 176.601 -187.488 
-51.4636 -109.186 -253.767 
68.5524 -64.3124 18.7782 
10.5319 152.012 -183.538 
-81.4378 -161.631 241.139 
-47.2963 61.8978 -59.3402 
-42.5819 182.812 -27.4766 
-27.0142 173.939 -38.8862 
-50.4817 -188.095 100.988 
-33.2988 148.721 -126.474 
90.1719 141.625 -146.281 
-69.965 -155.274 -34.7839 
-67.7346 176.735 137.745 
32.0284 7.21019 84.4962 
59.3908 31.054 124.663 
52.6411 125.044 -51.1498 
-61.6373 -153.607 -62.508 
21.5731 -17.9462 -85.935 
-85.3857 69.4992 -81.762 
43.7966 -190.079 -139.488 
91.5799 186.349 -206.865 
-53.8109 -148.563 -158.052 
26.7844 -96.5647 -177.676 
-16.9653 160.403 92.1308 
-79.7707 91.2624 -125.633 
57.8841 8.25383 -215.562 
-53.4633 72.7792 -164.482 
17.2108 -74.0609 71.1099 
79.5013 -58.3283 -94.3648 
-42.8009 -159.509 -92.8899 
0.325235 -162.515 -99.4382 
19.34 -81.9097 -41.4971 
55.8229 164.284 87.166 
85.2833 -61.7356 45.3292 
25.21 -34.4667 -90.5455 
73.2943 -106.703 180.68 
89.1969 -25.3837 19.667 
-62.7072 -181.186 178.937 
55.783 173.318 -160.394 
-71.0292 -105.783 -117.341 
-11.2276 86.049 -78.3761 
46.2308 -65.3791 70.2192 
-61.6624 -141.851 33.6611 
62.5737 -157.793 209.695 
-14.2479 85.1657 -97.183 
46.3927 44.5905 17.6909 
18.0076 36.6882 243.167 
-67.9975 99.0153 256.736 
89.0797 22.462 232.465 
-61.3617 67.691 -171.409 
-10.3101 -146.54 205.625 
54.6855 139.608 -143.296 
-13.2291 -178.246 -76.2262 
91.8599 141.48 -30.8398 
73.8578 -78.9569 -175.007 
-53.9629 -174.803 145.64 
45.4109 53.3582 -64.4602 
39.387 104.816 -189.79 
38.2191 96.6733 100.76 
28.3655 161.765 -67.174 
60.0684 -50.5815 -6.48236 
40.6099 -129.39 -76.6033 
82.3732 34.5937 -59.0338 
-37.9479 32.1627 -126.608 
44.0588 -7.25476 26.0034 
74.4744 73.0381 48.2549 
33.5499 -24.8255 -139.173 
-82.5607 -135.066 -256.613 
-57.4356 134.622 134.871 
71.6652 1.73693 94.8861 
-45.4166 -66.0119 -233.909 
45.3067 -173.739 -149.891 
-75.1494 186.666 157.159 
-3.23206 -82.4645 -59.0966 
44.5033 -183.106 191.036 
-39.2342 161.07 30.3747 
71.0773 38.8375 256.61 
-71.7699 60.3742 -187.092 
-70.558 133.532 256.006 
70.7498 89.6099 -1.63179 
11.6624 187.462 168.586 
20.9992 89.3843 192.284 
60.4024 126.148 186.167 
23.6 -71.656 -185.992 
-90.5913 -171.384 -175.034 
70.8156 -60.8301 -215.963 
-11.3576 -105.96 96.8595 
-12.5708 -62.2532 -81.026 
13.5199 -16.056 -159.41 
12.0905 -61.8592 222.468 
-81.5364 153.266 217.433 
71.8364 5.24646 79.0041 
47.6038 -61.816 -9.42294 

CELLS 100 200
1 0
1 1
1 2
1 3
1 4
1 5
1 6
1 7
1 8
1 9
1 10
1 11
1 12
1 13
1 14
1 15
1 16
1 17
1 18
1 19
1 20
1 21
1 22
1 23
1 24
1 25
1 26
1 27
1 28
1 29
1 30
1 31
1 32
1 33
1 34
1 35
1 36
1 37
1 38
1 39
1 40
1 41
1 42
1 43
1 44
1 45
1 46
1 47
1 48
1 49
1 50
1 51
1 52
1 53
1 54
1 55
1 56
1 57
1 58
1 59
1 60
1 61
1 62
1 63
1 64
1 65
1 66
1 67
1 68
1 69
1 70
1 71
1 72
1 73
1 74
1 75
1 76
1 77
1 78
1 79
1 80
1 81
1 82
1 83
1 84
1 85
1 86
1 87
1 88
1 89
1 90
1 91
1 92
1 93
1 94
1 95
1 96
1 97
1 98
1 99

CELL_TYPES 100
1
1
1
1
1
1
1
1
1
1
1
1
1
1
1
1
1
1
1
1
1
1
1
1
1
1
1
1
1
1
1
1
1
1
1
1
1
1
1
1
1
1
1
1
1
1
1
1
1
1
1
1
1
1
1
1
1
1
1
1
1
1
1
1
1
1
1
1
1
1
1
1
1
1
1
1
1
1
1
1
1
1
1
1
1
1
1
1
1
1
1
1
1
1
1
1
1
1
1
1

POINT_DATA 100
SCALARS color double 1
LOOKUP_TABLE default
3
2
1
1
3
1
3
3
1
3
3
2
3
3
3
1
3
3
1
3
3
3
3
1
3
1
1
3
1
1
3
1
3
1
3
3
1
1
3
3
3
3
3
3
1
3
1
3
3
1
3
3
3
3
3
3
1
3
3
1
3
2
1
3
3
3
3
3
1
3
1
3
3
3
1
3
3
1
1
3
1
3
3
3
1
3
3
3
3
3
1
1
1
3
1
1
3
3
3
3
