# vtk DataFile Version 2.0
vtk output
ASCII
DATASET UNSTRUCTURED_GRID
POINTS 100 double
12.2465 42.4115 -249.885 
-59.6133 121.078 -256.331 
15.7527 -29.7618 -259.493 
-34.1915 -167.736 -258.327 
88.7242 182.775 -242.522 
-83.1662 -88.322 -258.153 
70.892 23.9234 -246.73 
89.5895 176.601 -257.211 
-51.4636 -109.186 -259.76 
68.5524 -64.3124 -249.278 
10.5319 152.012 -257.059 
-81.4378 -161.631 -240.725 
-47.2963 61.8978 -252.282 
-42.5819 182.812 -251.057 
-27.0142 173.939 -251.496 
-50.4817 -188.095 -246.116 
-33.2988 148.721 -254.864 
90.1719 141.625 -255.626 
-69.965 -155.274 -251.338 
-67.7346 176.735 -244.702 
32.0284 7.21019 -246.75 
59.3908 31.054 -245.205 
52.6411 125.044 -251.967 
-61.6373 -153.607 -252.404 
21.5731 -17.9462 -253.305 
-85.3857 69.4992 -253.145 
43.7966 -190.079 -255.365 
91.5799 186.349 -257.956 
-53.8109 -148.563 -256.079 
26.7844 -96.5647 -256.834 
-16.9653 160.403 -246.457 
-79.7707 91.2624 -254.832 
57.8841 8.25383 -258.291 
-53.4633 72.7792 -256.326 
17.2108 -74.0609 -247.265 
79.5013 -58.3283 -253.629 
-42.8009 -159.509 -253.573 
0.325235 -162.515 -253.825 
19.34 -81.9097 -251.596 
55.8229 164.284 -246.647 
85.2833 -61.7356 -248.257 
25.21 -34.4667 -253.483 
73.2943 -106.703 -243.051 
89.1969 -25.3837 -249.244 
-62.7072 -181.186 -243.118 
55.783 173.318 -256.169 
-71.0292 -105.783 -254.513 
-11.2276 86.049 -253.014 
46.2308 -65.3791 -247.299 
-61.6624 -141.851 -248.705 
62.5737 -157.793 -241.935 
-14.2479 85.1657 -253.738 
46.3927 44.5905 -249.32 
18.0076 36.6882 -240.647 
-67.9975 99.0153 -240.126 
89.0797 22.462 -241.059 
-61.3617 67.691 -256.593 
-10.3101 -146.54 -242.091 
54.6855 139.608 -255.511 
-13.2291 -178.246 -252.932 
91.8599 141.48 -251.186 
73.8578 -78.9569 -256.731 
-53.9629 -174.803 -244.398 
45.4109 53.3582 -252.479 
39.387 104.816 -257.3 
38.2191 96.6733 -246.125 
28.3655 161.765 -252.584 
60.0684 -50.5815 -250.249 
40.6099 -129.39 -252.946 
82.3732 34.5937 -252.271 
-37.9479 32.1627 -254.87 
44.0588 -7.25476 -249 
74.4744 73.0381 -248.144 
33.5499 -24.8255 -255.353 
-82.5607 -135.066 -259.87 
-57.4356 134.622 -244.813 
71.6652 1.73693 -246.351 
-45.4166 -66.0119 -258.997 
45.3067 -173.739 -255.765 
-75.1494 186.666 -243.955 
-3.23206 -82.4645 -252.273 
44.5033 -183.106 -242.652 
-39.2342 161.07 -248.832 
71.0773 38.8375 -240.13 
-71.7699 60.3742 -257.196 
-70.558 133.532 -240.154 
70.7498 89.6099 -250.063 
11.6624 187.462 -243.516 
20.9992 89.3843 -242.604 
60.4024 126.148 -242.84 
23.6 -71.656 -257.154 
-90.5913 -171.384 -256.732 
70.8156 -60.8301 -258.306 
-11.3576 -105.96 -246.275 
-12.5708 -62.2532 -253.116 
13.5199 -16.056 -256.131 
12.0905 -61.8592 -241.444 
-81.5364 153.266 -241.637 
71.8364 5.24646 -246.961 
47.6038 -61.816 -250.362 

CELLS 100 200
1 0
1 1
1 2
1 3
1 4
1 5
1 6
1 7
1 8
1 9
1 10
1 11
1 12
1 13
1 14
1 15
1 16
1 17
1 18
1 19
1 20
1 21
1 22
1 23
1 24
1 25
1 26
1 27
1 28
1 29
1 30
1 31
1 32
1 33
1 34
1 35
1 36
1 37
1 38
1 39
1 40
1 41
1 42
1 43
1 44
1 45
1 46
1 47
1 48
1 49
1 50
1 51
1 52
1 53
1 54
1 55
1 56
1 57
1 58
1 59
1 60
1 61
1 62
1 63
1 64
1 65
1 66
1 67
1 68
1 69
1 70
1 71
1 72
1 73
1 74
1 75
1 76
1 77
1 78
1 79
1 80
1 81
1 82
1 83
1 84
1 85
1 86
1 87
1 88
1 89
1 90
1 91
1 92
1 93
1 94
1 95
1 96
1 97
1 98
1 99

CELL_TYPES 100
1
1
1
1
1
1
1
1
1
1
1
1
1
1
1
1
1
1
1
1
1
1
1
1
1
1
1
1
1
1
1
1
1
1
1
1
1
1
1
1
1
1
1
1
1
1
1
1
1
1
1
1
1
1
1
1
1
1
1
1
1
1
1
1
1
1
1
1
1
1
1
1
1
1
1
1
1
1
1
1
1
1
1
1
1
1
1
1
1
1
1
1
1
1
1
1
1
1
1
1

POINT_DATA 100
SCALARS color double 1
LOOKUP_TABLE default
1
1
1
1
3
1
3
3
1
1
3
1
1
2
2
1
2
3
1
2
1
3
3
1
1
1
1
3
1
1
3
1
2
1
1
1
1
1
1
3
1
1
1
3
1
3
1
1
1
1
1
1
3
1
1
3
1
1
3
1
3
1
1
3
3
3
3
1
1
3
1
1
3
1
1
1
3
1
1
2
1
1
2
3
1
1
3
3
3
3
1
1
1
1
1
1
1
1
3
1
